LAMMPS (27 Jun 2024 - Development - patch_27Jun2024-612-gaa0b6c47c2-modified)
# LAMMPS Input Script for a Rigid Body Simulation Using Lennard-Jones Units

units lj
atom_style atomic

# Create a simulation box
region box block 0 10 0 10 0 10
create_box 9 box
Created orthogonal box = (0 0 0) to (10 10 10)
  1 by 1 by 1 MPI processor grid

# Create atoms and assign each group to a separate clump
create_atoms 1 random 100 12345 box
Created 100 atoms
  using lattice units in orthogonal box = (0 0 0) to (10 10 10)
  create_atoms CPU = 0.000 seconds
group clump1 id 1:11
11 atoms in group clump1
group clump2 id 12:22
11 atoms in group clump2
group clump3 id 23:33
11 atoms in group clump3
group clump4 id 34:44
11 atoms in group clump4
group clump5 id 45:55
11 atoms in group clump5
group clump6 id 56:66
11 atoms in group clump6
group clump7 id 67:77
11 atoms in group clump7
group clump8 id 78:88
11 atoms in group clump8
group clump9 id 89:100
12 atoms in group clump9

# Define Lennard-Jones potential
pair_style lj/cut 2.5
pair_coeff * * 1.0 1.0

# Set up neighbor list exclusions within each clump
neigh_modify exclude group clump1 clump1
neigh_modify exclude group clump2 clump2
neigh_modify exclude group clump3 clump3
neigh_modify exclude group clump4 clump4
neigh_modify exclude group clump5 clump5
neigh_modify exclude group clump6 clump6
neigh_modify exclude group clump7 clump7
neigh_modify exclude group clump8 clump8
neigh_modify exclude group clump9 clump9

# Initialize velocity distribution at temperature 100.0
velocity all create 100.0 12345 dist gaussian
ERROR: Not all per-type masses are set. Type 1 is missing. (../velocity.cpp:60)
Last command: velocity all create 100.0 12345 dist gaussian
