LAMMPS (27 Jun 2024 - Development - patch_27Jun2024-612-gaa0b6c47c2-modified)
# LAMMPS input script for simulating Al2O3 crystal with charge equilibration

units           metal
dimension       3
boundary        p p p

# Define custom lattice and create simulation box
variable        a equal 4.76
variable        c equal 12.99
lattice         custom ${a} a1 1 0 0 a2 0 1 0 a3 0 0 ${c}                 basis 0.0 0.0 0.0                 basis 0.333 0.333 0.25                 basis 0.667 0.667 0.75                 basis 0.333 0.667 0.5                 basis 0.667 0.333 0.5
lattice         custom 4.76 a1 1 0 0 a2 0 1 0 a3 0 0 ${c}                 basis 0.0 0.0 0.0                 basis 0.333 0.333 0.25                 basis 0.667 0.667 0.75                 basis 0.333 0.667 0.5                 basis 0.667 0.333 0.5
lattice         custom 4.76 a1 1 0 0 a2 0 1 0 a3 0 0 12.99                 basis 0.0 0.0 0.0                 basis 0.333 0.333 0.25                 basis 0.667 0.667 0.75                 basis 0.333 0.667 0.5                 basis 0.667 0.333 0.5
Lattice spacing in x,y,z = 4.76 4.76 61.8324

region          box block 0 1 0 1 0 1
create_box      2 box
Created orthogonal box = (0 0 0) to (4.76 4.76 61.8324)
  1 by 1 by 1 MPI processor grid
create_atoms    1 box basis 1 1 basis 2 1 basis 3 1 basis 4 2 basis 5 2
Created 5 atoms
  using lattice units in orthogonal box = (0 0 0) to (4.76 4.76 61.8324)
  create_atoms CPU = 0.000 seconds

# Masses
mass            1 26.9815 # Aluminum
mass            2 15.999  # Oxygen

# Pair style and coefficients
pair_style      smtbq 7.0 10.0 1.0e-2
ERROR: Unrecognized pair style 'smtbq' is part of the SMTBQ package which is not enabled in this LAMMPS binary. (../force.cpp:275)
Last command: pair_style      smtbq 7.0 10.0 1.0e-2
