LAMMPS (27 Jun 2024 - Development - patch_27Jun2024-612-gaa0b6c47c2-modified)
# LAMMPS Input Script for 2D Lennard-Jones Fluid Simulation with Energy Minimization

units lj
dimension 2
boundary p p p

# Define the simulation box
lattice sq 0.8442
Lattice spacing in x,y,z = 1.0883719 1.0883719 1.0883719
region box block 0 20 0 20 -0.5 0.5
create_box 1 box
Created orthogonal box = (0 0 -0.54418596) to (21.767438 21.767438 0.54418596)
  1 by 1 by 1 MPI processor grid

# Create atoms
create_atoms 1 box
Created 400 atoms
  using lattice units in orthogonal box = (0 0 -0.54418596) to (21.767438 21.767438 0.54418596)
  create_atoms CPU = 0.000 seconds
mass 1 1.0

# Define potentials
pair_style lj/cut 2.5
pair_coeff 1 1 1.0 1.0 2.5

# Initial velocity
velocity all create 5.0 12345

# Fixes and computes
fix 1 all nve
fix 2 all enforce2d
neighbor 0.3 bin
neigh_modify every 1 delay 0 check yes

# Output settings
thermo 50
thermo_style custom step temp epair etotal

# Run the simulation
timestep 0.005
run 1000
Generated 0 of 0 mixed pair_coeff terms from geometric mixing rule
Neighbor list info ...
  update: every = 1 steps, delay = 0 steps, check = yes
  max neighbors/atom: 2000, page size: 100000
  master list distance cutoff = 2.8
  ghost atom cutoff = 2.8
  binsize = 1.4, bins = 16 16 1
  1 neighbor lists, perpetual/occasional/extra = 1 0 0
  (1) pair lj/cut, perpetual
      attributes: half, newton on
      pair build: half/bin/atomonly/newton
      stencil: half/bin/2d
      bin: standard
Per MPI rank memory allocation (min/avg/max) = 3.053 | 3.053 | 3.053 Mbytes
   Step          Temp          E_pair         TotEng    
         0   5             -2.6248859      2.3626141    
        50   3.2440808     -0.83841521     2.3975554    
       100   3.2671457     -0.8642237      2.3947541    
       150   3.295782      -0.89189665     2.3956459    
       200   3.3682142     -0.9641813      2.3956124    
       250   3.3614249     -0.95614387     2.3968775    
       300   3.2201716     -0.81548676     2.3966344    
       350   3.4521503     -1.0490579      2.3944621    
       400   3.2647613     -0.86039053     2.3962089    
       450   3.2896377     -0.88420286     2.3972107    
       500   3.3183932     -0.91391695     2.3961803    
       550   3.3584293     -0.9525675      2.3974657    
       600   3.2707328     -0.86675142     2.3958046    
       650   3.1839412     -0.7813187      2.3946627    
       700   3.2600078     -0.85533569     2.3965221    
       750   3.2521252     -0.84888952     2.3951053    
       800   3.2282532     -0.82532927     2.3948533    
       850   3.4096604     -1.0043537      2.3967825    
       900   3.2932376     -0.88899282     2.3960116    
       950   3.2994811     -0.89623599     2.3949964    
      1000   3.2076777     -0.80208016     2.3975784    
Loop time of 0.0427098 on 1 procs for 1000 steps with 400 atoms

Performance: 10114766.543 tau/day, 23413.811 timesteps/s, 9.366 Matom-step/s
97.8% CPU use with 1 MPI tasks x no OpenMP threads

MPI task timing breakdown:
Section |  min time  |  avg time  |  max time  |%varavg| %total
---------------------------------------------------------------
Pair    | 0.024075   | 0.024075   | 0.024075   |   0.0 | 56.37
Neigh   | 0.014157   | 0.014157   | 0.014157   |   0.0 | 33.15
Comm    | 0.001306   | 0.001306   | 0.001306   |   0.0 |  3.06
Output  | 7.2337e-05 | 7.2337e-05 | 7.2337e-05 |   0.0 |  0.17
Modify  | 0.0022137  | 0.0022137  | 0.0022137  |   0.0 |  5.18
Other   |            | 0.0008856  |            |       |  2.07

Nlocal:            400 ave         400 max         400 min
Histogram: 1 0 0 0 0 0 0 0 0 0
Nghost:            233 ave         233 max         233 min
Histogram: 1 0 0 0 0 0 0 0 0 0
Neighs:           3886 ave        3886 max        3886 min
Histogram: 1 0 0 0 0 0 0 0 0 0

Total # of neighbors = 3886
Ave neighs/atom = 9.715
Neighbor list builds = 187
Dangerous builds = 0

# Energy minimization
min_style fire
minimize 1.0e-4 1.0e-6 100 1000
Generated 0 of 0 mixed pair_coeff terms from geometric mixing rule
  Parameters for fire:
    dmax  delaystep dtgrow dtshrink alpha0 alphashrink tmax tmin   integrator   halfstepback   abcfire  
     0.1     20      1.1     0.5     0.25     0.99      10  0.02 eulerimplicit      yes          no     
Per MPI rank memory allocation (min/avg/max) = 3.053 | 3.053 | 3.053 Mbytes
   Step          Temp          E_pair         TotEng    
      1000   0             -0.80208016    -0.80208016   
      1050   0.022218361   -2.8780477     -2.8558849    
      1100   0.0073715267  -2.9887535     -2.9814004    
Loop time of 0.00680471 on 1 procs for 100 steps with 400 atoms

97.0% CPU use with 1 MPI tasks x no OpenMP threads

Minimization stats:
  Stopping criterion = max iterations
  Energy initial, next-to-last, final = 
    -0.802080163650374  -2.98787386511456  -2.98875347731465
  Force two-norm initial, final = 1342.631 7.9744607
  Force max component initial, final = 262.20899 2.1265079
  Final line search alpha, max atom move = 0 0
  Iterations, force evaluations = 100 101

MPI task timing breakdown:
Section |  min time  |  avg time  |  max time  |%varavg| %total
---------------------------------------------------------------
Pair    | 0.0045957  | 0.0045957  | 0.0045957  |   0.0 | 67.54
Neigh   | 0.0014045  | 0.0014045  | 0.0014045  |   0.0 | 20.64
Comm    | 0.00014096 | 0.00014096 | 0.00014096 |   0.0 |  2.07
Output  | 1.3584e-05 | 1.3584e-05 | 1.3584e-05 |   0.0 |  0.20
Modify  | 3.3875e-05 | 3.3875e-05 | 3.3875e-05 |   0.0 |  0.50
Other   |            | 0.000616   |            |       |  9.05

Nlocal:            400 ave         400 max         400 min
Histogram: 1 0 0 0 0 0 0 0 0 0
Nghost:            235 ave         235 max         235 min
Histogram: 1 0 0 0 0 0 0 0 0 0
Neighs:           3577 ave        3577 max        3577 min
Histogram: 1 0 0 0 0 0 0 0 0 0

Total # of neighbors = 3577
Ave neighs/atom = 8.9425
Neighbor list builds = 19
Dangerous builds = 0
Total wall time: 0:00:00
