LAMMPS (27 Jun 2024 - Development - patch_27Jun2024-612-gaa0b6c47c2-modified)
# LAMMPS input script for MD simulation of fcc copper using ACE potential

units metal
dimension 3
boundary p p p

# Create FCC lattice
lattice fcc 3.597
Lattice spacing in x,y,z = 3.597 3.597 3.597
region box block 0 4 0 4 0 4
create_box 1 box
Created orthogonal box = (0 0 0) to (14.388 14.388 14.388)
  1 by 1 by 1 MPI processor grid
create_atoms 1 box
Created 256 atoms
  using lattice units in orthogonal box = (0 0 0) to (14.388 14.388 14.388)
  create_atoms CPU = 0.000 seconds

# Set atomic masses
mass 1 63.546

# Define ACE potential
pair_style pace product
ERROR: Unrecognized pair style 'pace' is part of the ML-PACE package which is not enabled in this LAMMPS binary. (../force.cpp:275)
Last command: pair_style pace product
