LAMMPS (27 Jun 2024 - Development - patch_27Jun2024-612-gaa0b6c47c2-modified)
# LAMMPS input script for oxDNA model simulation

units lj
dimension 3
boundary p p p
atom_style hybrid bond ellipsoid
WARNING: Atom style hybrid defines both, per-type and per-atom masses; both must be set, but only per-atom masses will be used (../atom_vec_hybrid.cpp:132)

# Read initial data
read_data dna_data.lammps
ERROR: Cannot open file dna_data.lammps: No such file or directory (../read_data.cpp:367)
Last command: read_data dna_data.lammps
