LAMMPS (27 Jun 2024 - Development - patch_27Jun2024-612-gaa0b6c47c2-modified)
# LAMMPS input script for graphene-ionic liquid supercapacitor with constant potential electrodes

# Initialization
units           real
atom_style      full
boundary        p p p

# Read data
read_data       supercapacitor.data
ERROR: Cannot open file supercapacitor.data: No such file or directory (../read_data.cpp:367)
Last command: read_data       supercapacitor.data
