LAMMPS (27 Jun 2024 - Development - patch_27Jun2024-612-gaa0b6c47c2-modified)
# LAMMPS Input Script for Benzene-Water Solution

units           real
atom_style      molecular
boundary        p p p

# Read data file
read_data       benzene_water.data
ERROR: Cannot open file benzene_water.data: No such file or directory (../read_data.cpp:367)
Last command: read_data       benzene_water.data
