LAMMPS (27 Jun 2024 - Development - patch_27Jun2024-612-gaa0b6c47c2-modified)
# LAMMPS input script for a 3D simulation of charged particles with periodic boundary conditions

units metal
atom_style full
dimension 3
boundary p p p

# Define lattice and regions
lattice fcc 4.08
Lattice spacing in x,y,z = 4.08 4.08 4.08
region box block 0 10 0 10 0 10
create_box 2 box
Created orthogonal box = (0 0 0) to (40.8 40.8 40.8)
  1 by 1 by 1 MPI processor grid

# Define regions
region LEFT block 0 5 0 10 0 10
region RIGHT block 5 10 0 10 0 10

# Create atoms in regions
create_atoms 1 region LEFT
Created 2200 atoms
  using lattice units in orthogonal box = (0 0 0) to (40.8 40.8 40.8)
  create_atoms CPU = 0.001 seconds
create_atoms 2 region RIGHT
Created 2000 atoms
  using lattice units in orthogonal box = (0 0 0) to (40.8 40.8 40.8)
  create_atoms CPU = 0.000 seconds

# Assign charges
set region LEFT charge -1.0
Setting atom values ...
  2400 settings made for charge
set region RIGHT charge 1.0
Setting atom values ...
  2200 settings made for charge

# Define potentials
pair_style lj/cut 10.0
pair_coeff * * 0.0 1.0

# # Uncomment these lines to include long-range Coulombic interactions
# kspace_style pppm 1.0e-4
# kspace_modify dielectric 1.0

# Advanced thermal coupling (ATC) setup
fix atc all atc mesh tetrahedral order 1     th_scale 0.5 th_mode full     elec_mode full
ERROR: Illegal fix atc command (../fix_atc.cpp:56)
Last command: fix atc all atc mesh tetrahedral order 1     th_scale 0.5 th_mode full     elec_mode full
