LAMMPS (27 Jun 2024 - Development - patch_27Jun2024-612-gaa0b6c47c2-modified)
# LAMMPS Input Script for Complex Molecular System Simulation

units real
atom_style full
boundary p p p

# Read data file
read_data complex_system.data
ERROR: Cannot open file complex_system.data: No such file or directory (../read_data.cpp:367)
Last command: read_data complex_system.data
