LAMMPS (27 Jun 2024 - Development - patch_27Jun2024-612-gaa0b6c47c2-modified)
# LAMMPS Input Script for Binary Mixture: Liquid and Solid Particles

units           lj
atom_style      atomic
boundary        p p p

read_data       binary_mixture.data
ERROR: Cannot open file binary_mixture.data: No such file or directory (../read_data.cpp:367)
Last command: read_data       binary_mixture.data
