LAMMPS (27 Jun 2024 - Development - patch_27Jun2024-612-gaa0b6c47c2-modified)
# LAMMPS Input Script for J-Integral Calculation with a Crack in FCC Gold

# Initialize
units           metal
dimension       3
boundary        p s p
atom_style      atomic

# Create FCC Lattice for Gold
lattice         fcc 4.08
Lattice spacing in x,y,z = 4.08 4.08 4.08
region          whole block 0 20 0 10 0 10 units lattice
create_box      1 whole
Created orthogonal box = (0 0 0) to (81.6 40.8 40.8)
  1 by 1 by 1 MPI processor grid
create_atoms    1 region whole
Created 8400 atoms
  using lattice units in orthogonal box = (0 -0.00408 0) to (81.6 40.80408 40.8)
  create_atoms CPU = 0.001 seconds

# Define Potential
pair_style      lj/smooth/linear 10.0
pair_coeff      * * 0.167 2.315

# Define Crack Regions
region          upper block INF INF 5 INF INF INF units lattice
region          lower block INF INF 0 5 INF INF units lattice
group           upper region upper
4400 atoms in group upper
group           lower region lower
4400 atoms in group lower

# Define Crack Tip and Evaluation Regions (Concentric Loops)
region          crack_tip block 9 11 4.5 5.5 4.5 5.5 units lattice
group           crack_tip region crack_tip
23 atoms in group crack_tip

# Define Simulation Settings
neighbor        2.0 bin
neigh_modify    delay 5

# Minimization to Relax the System
reset_timestep  0
min_style       cg
minimize        1.0e-12 1.0e-12 10000 10000
Switching to 'neigh_modify every 1 delay 0 check yes' setting during minimization
Generated 0 of 0 mixed pair_coeff terms from geometric mixing rule
ERROR: Not all per-type masses are set. Type 1 is missing. (../atom.cpp:763)
Last command: minimize        1.0e-12 1.0e-12 10000 10000
