LAMMPS (27 Jun 2024 - Development - patch_27Jun2024-612-gaa0b6c47c2-modified)
# LAMMPS input script for Argon fcc lattice using Lennard-Jones potential

units           metal
atom_style      atomic
boundary        f p p

# Create FCC lattice for Argon
lattice         fcc 5.26
Lattice spacing in x,y,z = 5.26 5.26 5.26
region          box block 0 10 0 10 0 10
create_box      1 box
Created orthogonal box = (0 0 0) to (52.6 52.6 52.6)
  1 by 1 by 1 MPI processor grid
create_atoms    1 box
Created 4000 atoms
  using lattice units in orthogonal box = (0 0 0) to (52.6 52.6 52.6)
  create_atoms CPU = 0.000 seconds

# Define Lennard-Jones potential for Argon
pair_style      lj/cut 13.0
pair_coeff      1 1 0.0104 3.4

# Initialize velocities and displacements
velocity        all create 0.0 87287 loop geom
ERROR: Not all per-type masses are set. Type 1 is missing. (../velocity.cpp:60)
Last command: velocity        all create 0.0 87287 loop geom
