LAMMPS (27 Jun 2024 - Development - patch_27Jun2024-612-gaa0b6c47c2-modified)
units real
atom_style full

read_data CH4.dat
ERROR: Cannot open file CH4.dat: No such file or directory (../read_data.cpp:367)
Last command: read_data CH4.dat
