LAMMPS (27 Jun 2024 - Development - patch_27Jun2024-612-gaa0b6c47c2-modified)
# LAMMPS input script for 2D simulation of polydisperse spheres with SRD

# Initialization
units lj
dimension 2
atom_style atomic
boundary p p p

# Create simulation box
region box block 0 50 0 50 -0.5 0.5
create_box 3 box
Created orthogonal box = (0 0 -0.5) to (50 50 0.5)
  1 by 1 by 1 MPI processor grid

# Create large particles on a square lattice
lattice sq 0.3
Lattice spacing in x,y,z = 1.8257419 1.8257419 1.8257419
region large_particles block 0 50 0 50 -0.5 0.5
create_atoms 1 region large_particles
Created 784 atoms
  using lattice units in orthogonal box = (0 0 -0.5) to (50 50 0.5)
  create_atoms CPU = 0.000 seconds
group large_particles type 1
784 atoms in group large_particles

# Assign different types and sizes to large particles
set group large_particles type/fraction 2 0.3 12345
Setting atom values ...
  246 settings made for type/fraction
set group large_particles type/fraction 3 0.3 23456
Setting atom values ...
  227 settings made for type/fraction
set type 1 diameter 1.0
Setting atom values ...
ERROR: Cannot set attribute diameter for atom style atomic (../set.cpp:406)
Last command: set type 1 diameter 1.0
