LAMMPS (27 Jun 2024 - Development - patch_27Jun2024-612-gaa0b6c47c2-modified)
# LAMMPS input script for Zr using EAM/FS with hybrid potential
# Structural analysis using bispectrum components and logistic regression

units metal
dimension 3
boundary p p p
atom_style atomic

# Read initial structure
read_data zr_structure.data
ERROR: Cannot open file zr_structure.data: No such file or directory (../read_data.cpp:367)
Last command: read_data zr_structure.data
