LAMMPS (27 Jun 2024 - Development - patch_27Jun2024-612-gaa0b6c47c2-modified)
# LAMMPS input script for a 3D Lennard-Jones melt simulation

units lj
atom_style atomic

# Read initial configuration from data file
read_data data.snapshot
ERROR: Cannot open file data.snapshot: No such file or directory (../read_data.cpp:367)
Last command: read_data data.snapshot
