LAMMPS (27 Jun 2024 - Development - patch_27Jun2024-612-gaa0b6c47c2-modified)
# LAMMPS Input Script for a 3D Lennard-Jones Melt Simulation

units lj
atom_style atomic

# Define variables for box dimensions
variable x equal 20
variable y equal 20
variable z equal 20

# Create simulation box with periodic boundary conditions
lattice fcc 0.8442
Lattice spacing in x,y,z = 1.6795962 1.6795962 1.6795962
region box block 0 ${x} 0 ${y} 0 ${z}
region box block 0 20 0 ${y} 0 ${z}
region box block 0 20 0 20 0 ${z}
region box block 0 20 0 20 0 20
create_box 1 box
Created orthogonal box = (0 0 0) to (33.591924 33.591924 33.591924)
  1 by 1 by 1 MPI processor grid

# Create atoms on the lattice
create_atoms 1 box
Created 32000 atoms
  using lattice units in orthogonal box = (0 0 0) to (33.591924 33.591924 33.591924)
  create_atoms CPU = 0.001 seconds

# Set mass of the atom type
mass 1 1.0

# Define Lennard-Jones potential
pair_style lj/cut 2.5
pair_coeff 1 1 1.0 1.0 2.5

# Assign initial velocities using Maxwell-Boltzmann distribution
velocity all create 1.44 87287

# Define neighbor list settings
neighbor 0.3 bin
neigh_modify every 20 delay 0 check no

# Integrate using NVE ensemble
fix 1 all nve

# Output settings
thermo 100
thermo_style custom step temp epair etotal press
dump 1 all custom/adios 100 dump.adios id type x y z vx vy vz
ERROR: Unrecognized dump style 'custom/adios' is part of the ADIOS package which is not enabled in this LAMMPS binary. (../output.cpp:776)
Last command: dump 1 all custom/adios 100 dump.adios id type x y z vx vy vz
