LAMMPS (27 Jun 2024 - Development - patch_27Jun2024-612-gaa0b6c47c2-modified)
# LAMMPS Input Script for Hybrid Pair Potential with FEP

units           real
atom_style      full
boundary        p p p

# Read initial configuration from data file
read_data       system.data
ERROR: Cannot open file system.data: No such file or directory (../read_data.cpp:367)
Last command: read_data       system.data
