LAMMPS (27 Jun 2024 - Development - patch_27Jun2024-612-gaa0b6c47c2-modified)
# LAMMPS input script for 2D Lennard-Jones Poiseuille flow

# Initialization
units lj
dimension 2
boundary p s s
atom_style atomic

# Create simulation box
lattice hex 0.9
Lattice spacing in x,y,z = 1.1326962 1.9618873 1.1326962
region simbox block 0 20 0 10 -0.1 0.1
create_box 3 simbox
ERROR: Cannot run 2d simulation with nonperiodic Z dimension (../create_box.cpp:43)
Last command: create_box 3 simbox
