LAMMPS (27 Jun 2024 - Development - patch_27Jun2024-612-gaa0b6c47c2-modified)
# 2D Lennard-Jones Liquid Simulation for MSD Analysis

units lj
dimension 2
atom_style atomic

# Create a 2D square simulation box
lattice sq 0.6
Lattice spacing in x,y,z = 1.2909944 1.2909944 1.2909944
region simbox block 0 40 0 40 -0.5 0.5
create_box 1 simbox
Created orthogonal box = (0 0 -0.64549722) to (51.639778 51.639778 0.64549722)
  1 by 1 by 1 MPI processor grid
create_atoms 1 box
Created 1600 atoms
  using lattice units in orthogonal box = (0 0 -0.64549722) to (51.639778 51.639778 0.64549722)
  create_atoms CPU = 0.000 seconds

# Define interaction potential
pair_style lj/cut 2.5
pair_coeff 1 1 1.0 1.0 2.5

# Define settings for neighboring list
neighbor 0.3 bin
neigh_modify every 1 delay 0 check yes

# Initial velocity setup
velocity all create 1.0 12345
ERROR: Not all per-type masses are set. Type 1 is missing. (../velocity.cpp:60)
Last command: velocity all create 1.0 12345
