LAMMPS (27 Jun 2024 - Development - patch_27Jun2024-612-gaa0b6c47c2-modified)
# LAMMPS input script for methane (CH4) simulation with eff/cut potential

units electron
atom_style electron

boundary p p p

read_data data.CH4fc.bohr
ERROR: Cannot open file data.CH4fc.bohr: No such file or directory (../read_data.cpp:367)
Last command: read_data data.CH4fc.bohr
