LAMMPS (27 Jun 2024 - Development - patch_27Jun2024-612-gaa0b6c47c2-modified)
# LAMMPS input script for Al2O3 simulation using charge equilibration model

units           metal
dimension       3
boundary        p p p
atom_style      charge

# Create simulation box and atoms
variable a equal 4.759  # lattice parameter for corundum structure
variable c equal 12.990 # lattice parameter for corundum structure

region  box block 0 1 0 1 0 1 units lattice
lattice custom ${a}     a1 1.0 0.0 0.0     a2 0.0 1.0 0.0     a3 0.0 0.0 ${c}     basis 0.0 0.0 0.0     basis 0.306 0.0 0.25     basis 0.694 0.0 0.75     basis 0.0 0.5 0.5     basis 0.306 0.5 0.75     basis 0.694 0.5 0.25     basis 0.5 0.0 0.5     basis 0.806 0.0 0.75     basis 0.194 0.0 0.25     basis 0.5 0.5 0.0     basis 0.806 0.5 0.25     basis 0.194 0.5 0.75
lattice custom 4.759     a1 1.0 0.0 0.0     a2 0.0 1.0 0.0     a3 0.0 0.0 ${c}     basis 0.0 0.0 0.0     basis 0.306 0.0 0.25     basis 0.694 0.0 0.75     basis 0.0 0.5 0.5     basis 0.306 0.5 0.75     basis 0.694 0.5 0.25     basis 0.5 0.0 0.5     basis 0.806 0.0 0.75     basis 0.194 0.0 0.25     basis 0.5 0.5 0.0     basis 0.806 0.5 0.25     basis 0.194 0.5 0.75
lattice custom 4.759     a1 1.0 0.0 0.0     a2 0.0 1.0 0.0     a3 0.0 0.0 12.99     basis 0.0 0.0 0.0     basis 0.306 0.0 0.25     basis 0.694 0.0 0.75     basis 0.0 0.5 0.5     basis 0.306 0.5 0.75     basis 0.694 0.5 0.25     basis 0.5 0.0 0.5     basis 0.806 0.0 0.75     basis 0.194 0.0 0.25     basis 0.5 0.5 0.0     basis 0.806 0.5 0.25     basis 0.194 0.5 0.75
Lattice spacing in x,y,z = 4.759 4.759 61.81941

create_box      2 box
Created orthogonal box = (0 0 0) to (1 1 1)
  1 by 1 by 1 MPI processor grid
create_atoms    1 basis 1 1 basis 4 1 basis 7 1 basis 10 1
ERROR: Unknown create_atoms command option basis (../create_atoms.cpp:141)
Last command: create_atoms    1 basis 1 1 basis 4 1 basis 7 1 basis 10 1
