LAMMPS (27 Jun 2024 - Development - patch_27Jun2024-612-gaa0b6c47c2-modified)
# LAMMPS Input Script for a Triclinic System

# Initialize simulation
units lj
atom_style atomic
boundary p p p

# Read the triclinic data file
read_data triclinic_data_file.data
ERROR: Cannot open file triclinic_data_file.data: No such file or directory (../read_data.cpp:367)
Last command: read_data triclinic_data_file.data
