LAMMPS (27 Jun 2024 - Development - patch_27Jun2024-612-gaa0b6c47c2-modified)
# LAMMPS input script for Monte Carlo relaxation of a perturbed 2D hexagonal lattice

units lj
dimension 2
atom_style atomic

# Create a 2D hexagonal lattice
lattice hex 1.0
Lattice spacing in x,y,z = 1.0745699 1.8612097 1.0745699
region box block 0 10 0 10 -0.1 0.1
create_box 1 box
Created orthogonal box = (0 0 -0.10745699) to (10.745699 18.612097 0.10745699)
  1 by 1 by 1 MPI processor grid
create_atoms 1 box
Created 200 atoms
  using lattice units in orthogonal box = (0 0 -0.10745699) to (10.745699 18.612097 0.10745699)
  create_atoms CPU = 0.000 seconds

# Define Lennard-Jones potential with shifted energy at cutoff
pair_style lj/cut 2.5
pair_modify shift yes
pair_coeff 1 1 1.0 1.0 2.5

# Setup neighbor list
neighbor 0.3 bin
neigh_modify every 1 delay 0 check yes

# Variables for simulation
variable max_disp equal 0.2
variable mc_disp equal 0.1
variable T equal 0.05
variable accepted_moves equal 0
variable attempted_moves equal 0
variable min_energy equal 0

# Initialize velocities to perturb the lattice
velocity all create 0.0 12345
ERROR: Not all per-type masses are set. Type 1 is missing. (../velocity.cpp:60)
Last command: velocity all create 0.0 12345
