LAMMPS (27 Jun 2024 - Development - patch_27Jun2024-612-gaa0b6c47c2)
%&'()*456789:CDEFGHIJSTUVWXYZcdefghijstuvwxyz$4%&'()*56789:CDEFGHIJSTUVWXYZcdefghijstuvwxyz'udbHX4j[V}M*y>?<gJ_ +C(M^Ri/VYރuL2b8iJg_}L>n_9Ai|?!]
ERROR: Unmatched single quote in command (src/input.cpp:457)
Last command: %&'()*456789:CDEFGHIJSTUVWXYZcdefghijstuvwxyz$4%&'()*56789:CDEFGHIJSTUVWXYZcdefghijstuvwxyz'udbHX4j[V}M*y>?<gJ_ +C(M^Ri/VYރuL2b8iJg_}L>n_9Ai|?!]
